data_160605-ICSD

_cell_length_a                     4.7698(1)
_cell_length_b                     4.7698(1)
_cell_length_c                     13.0243(4)
_cell_angle_alpha                  90.
_cell_angle_beta                   90.
_cell_angle_gamma                  120.
_cell_volume                       256.62
_cell_formula_units_Z              6.000
_symmetry_space_group_name_H-M     'R -3 c'
_symmetry_Int_Tables_number        167
_refine_ls_R_factor_all            0.017800


### these are needed thought I am not sure that they are used #######
_atom_site_label
_atom_site_type_symbol
_atom_site_symmetry_multiplicity
_atom_site_Wyckoff_symbol
_atom_site_fract_x
_atom_site_fract_y
_atom_site_fract_z
_atom_site_B_iso_or_equiv
_atom_site_occupancy
Al1 Al3+ 12 c 0 0 0.35231(1) 0.0 1.
O1 O2- 18 e 0.69360(8) 0 0.250 0.0 1.

#End of data_160605-ICSD

